LAMMPS data file via write_data, version 29 Aug 2024, timestep = 30000, units = metal

250 atoms
1 atom types

0.4246541198109206 21.57534588018947 xlo xhi
0.4246541198109206 21.57534588018947 ylo yhi
0.4246541198109206 21.57534588018947 zlo zhi

Masses

1 22.98977

Atoms # atomic

146 1 2.848227064555882 6.657274197384205 6.770816248919863 1 1 1
34 1 9.363617512798134 8.859960646414972 4.449658241724961 0 -1 0
20 1 9.468672421839619 4.412886111320082 8.97886621695351 0 1 0
172 1 5.028683325406131 4.441208351946973 4.71820129552771 1 0 0
19 1 7.192658580429873 2.6720254079527472 6.809764073872612 -1 0 0
128 1 4.6678795634678645 4.533503250409437 8.157077980702855 1 1 0
110 1 7.77792555714864 6.6721906076572015 7.006068718876444 1 0 0
54 1 5.8314415397921 8.753268992778555 8.917208943508474 0 0 0
176 1 7.517394625506103 6.869972326768011 2.684111745964598 0 0 1
11 1 2.8017418378014805 6.331934692257339 2.923917607874392 1 0 0
47 1 0.9641589687573711 8.782119525503713 8.775065698088834 1 0 0
217 1 5.290059789897997 8.600883137753266 4.908712161327149 0 0 1
30 1 3.2280732865891175 2.503638154702272 2.7251685358598503 2 1 0
234 1 3.0079863820035846 10.613683136163184 6.903779987869146 1 -1 0
166 1 3.393773510804051 2.204789863780869 6.358283612266643 0 1 0
67 1 7.368332541357074 11.298841527195904 3.1432328359930923 0 0 1
158 1 9.867281769392125 8.871591398772486 8.841814600671363 0 0 1
100 1 9.443045080216718 4.630738647677351 4.417810754463334 -1 0 0
80 1 3.7489302230352295 6.599387028321782 11.079851209400976 1 0 0
145 1 7.394352874003008 2.28874302786779 3.0187049843954648 0 1 0
181 1 1.0962487353046158 8.48465569939064 4.98420246816553 0 0 1
31 1 7.240366810812737 2.854758686407418 10.771625305006753 0 0 0
41 1 1.566226497088621 4.442938132493437 8.464937203443702 0 0 -1
90 1 3.064211538349854 3.080794474252841 11.319875131466555 1 1 0
78 1 3.718072192215633 10.500825794397214 10.865452492620786 0 1 0
64 1 7.857958442348373 6.914790102420607 11.221032569469154 1 0 0
218 1 7.855811940160215 11.18922280878109 7.060017173117549 0 0 0
203 1 9.393033682783186 1.0747377832055212 8.597987072514348 -1 0 1
159 1 5.675265101319767 8.647961801936368 0.4718586558338934 0 0 0
13 1 1.3132316532612558 8.558669215136577 1.3471576011775008 1 1 0
141 1 1.0550453089574467 4.260273685375729 4.877363641333814 0 0 1
91 1 11.254963518419043 7.1018422564016594 2.597619508543318 0 0 0
138 1 3.3402732556371135 10.871976782612153 2.819096629802714 1 0 1
72 1 1.1268796897263464 0.7188252246302196 8.825339739944722 1 1 0
152 1 11.301463113175858 6.843033835123894 6.596204779961546 0 0 0
118 1 11.309466860195645 2.3228691502267553 11.074542363648396 0 0 0
106 1 7.469544434284853 10.896089433047525 10.684415217436628 0 0 0
124 1 4.53465366813437 0.5976858442489805 9.451741589602163 0 1 1
178 1 10.122228255633816 0.7406541017161438 5.358776228334151 0 1 0
6 1 9.71381003936888 9.049670117359737 0.855677564473047 0 0 0
66 1 5.150143462902966 0.5023001430855416 0.4488460929909723 1 0 1
111 1 11.892410597591942 10.745134762689508 6.88302881456091 -1 0 0
153 1 11.814461562288 11.067794996469106 11.164911779045614 0 0 0
204 1 11.801950357456251 2.880761937947895 2.7607216724932417 -1 1 1
207 1 11.634624056779307 7.01860202671722 11.150776990018223 -1 0 0
200 1 12.445418042853216 3.309398114640984 6.765790153966751 0 0 0
239 1 13.74529276506829 8.758232176387539 8.899277835354326 0 0 0
97 1 14.23879661597375 5.08382702916417 4.482441193408892 0 0 0
168 1 19.985978258109167 6.525569511960275 2.394892135930327 -1 0 1
52 1 20.516778092800045 6.451798841465894 7.235700512195022 -1 0 0
135 1 16.22668556253445 6.696306788256896 6.682849662802093 1 0 0
193 1 13.82713299207659 5.0336346945693835 9.203252391162453 0 0 1
184 1 18.488987986599046 8.777883722604242 4.697583001274029 -1 0 1
139 1 19.830452095866168 1.9487058014919734 6.587392407323543 0 0 1
35 1 15.909939577207362 6.474774147798882 2.5284734090152035 -1 0 0
69 1 17.957597482035766 4.688253202957939 8.89801511935432 0 1 0
140 1 18.578659605640084 4.692140050591288 4.4713882210134015 0 0 0
154 1 14.309734381149879 8.877101346604398 4.295315746337492 0 0 1
93 1 18.222936134636686 8.615551832605307 9.488693105236035 -1 0 -1
171 1 16.766670507857317 11.04570399427112 2.6434569344678103 0 0 0
188 1 16.143861745629152 2.7209657100365137 6.466869195838648 0 -1 0
37 1 20.584946164859343 3.210349872289018 2.183859063636405 0 0 1
240 1 20.078195148352098 10.725695655789087 10.611636330613669 -1 0 0
231 1 16.535115079877958 2.5620713766246173 2.54534359461258 -1 0 1
212 1 20.35788717736718 11.37648163896411 2.409200146577507 0 0 0
40 1 19.954834610151956 10.866855371552571 7.40824866247251 -1 0 -1
44 1 20.354957726479277 6.977247874343695 10.909588736488237 -1 1 -1
83 1 16.397605390146765 10.697456077345098 7.156180357087955 0 0 0
186 1 13.831450691113497 9.029393212166847 0.7034225463833621 -1 0 1
99 1 13.828613604200497 4.3119824108837586 0.637785948369409 0 0 1
187 1 20.44520722942757 3.141450876086359 10.658809805748684 -1 0 0
51 1 11.826854075050875 10.717793465503679 2.715286061530021 0 0 0
1 1 13.7316466729373 0.9559189006083306 8.900984929475344 0 0 0
223 1 15.786457789449354 7.263792162679541 11.546859183872643 0 1 1
248 1 15.855450055753906 11.067058293936144 11.428365235743229 0 0 0
155 1 18.014778493071102 0.6657120861197718 8.662015882440718 0 -1 0
73 1 18.11864428536141 8.547031011468711 0.4823141135597524 0 1 0
243 1 13.87889292060505 0.5750440449737022 4.766607680655573 1 1 1
115 1 15.418146826418885 2.908373656557908 11.049765686628756 1 1 -1
116 1 17.588779226730267 4.827285148571828 0.475311963131837 0 0 0
215 1 0.9077253489287878 21.529682957894202 4.939067379112794 0 0 1
36 1 5.361730167217137 21.32130129562277 4.775056714154791 1 -1 0
132 1 9.982623265641353 13.169324002885732 8.870889993789682 1 0 0
157 1 8.00089264601774 20.078041828984254 3.168884429446375 -1 -1 1
92 1 7.733557475326108 15.225255602823884 7.271111960885459 1 -1 0
143 1 5.8774012573394865 13.522871520957889 9.061997379467195 1 0 0
213 1 2.9609272928190356 14.939339426808248 2.987532482105556 1 -1 0
180 1 9.77777705089897 17.812494700260928 4.553033580812957 1 -1 1
45 1 6.954204227009144 20.3867551869444 7.3539913654199855 0 0 0
237 1 10.042337196772415 12.894227305054219 4.878787503536794 1 1 1
133 1 3.5105015826763415 19.324950016143195 2.5065982619757645 0 -1 0
167 1 7.556328614158158 15.378834391707333 3.1011313407957766 0 0 0
32 1 5.991398291537833 17.68379349800777 5.11707457146335 0 -1 0
165 1 3.1852425411713696 19.481143854344946 6.861552971092862 0 0 0
61 1 4.855595148013456 12.740606630990602 5.309911477603106 1 0 -1
98 1 5.6299158816089605 17.665171358417965 8.821190115502425 1 0 0
26 1 3.146793963985557 15.158579595348433 6.702375187985694 0 -1 -1
60 1 7.644955446532842 15.73266413426715 10.99572583397047 0 0 -1
249 1 7.256797436854743 19.961036407269432 11.205123350439212 0 0 0
29 1 9.542404775092407 18.12206897857328 8.783589590111685 0 0 0
89 1 0.6574605114458202 17.7419137519795 4.267788059298521 0 -1 0
53 1 0.9852524916674422 12.857774005829437 5.057703838798415 1 0 0
149 1 3.5601731120215487 15.306872661052177 10.863984440309581 1 -1 0
87 1 1.6977768639247777 12.83434777964229 8.786928115044837 1 0 -1
15 1 3.0146791401922557 19.741301847813848 11.210263817610313 1 0 0
58 1 0.8689247920321619 17.062079738992885 8.994675408149806 1 -1 0
68 1 0.8943206341392551 17.412593483715355 0.6762666647393525 0 -1 0
235 1 5.9818138099696165 17.356965306906783 0.7385265146931663 0 0 1
76 1 8.98879605913669 13.165915411652549 0.9391126440198844 0 -1 0
46 1 5.483228274152455 13.268011675918677 1.1835878752704194 -1 0 0
227 1 1.2535607251500982 12.93075058716742 0.4969165751251914 0 0 0
175 1 11.611340539160018 15.223228432829547 6.621534755931074 0 0 0
21 1 11.433040948292156 15.016000011890739 11.352301224168134 0 0 0
59 1 9.136523152310124 17.367371658798085 0.9111931920152015 0 -1 0
209 1 18.19359371952326 21.347839451731385 4.7452349718661155 0 -1 0
79 1 11.78638551453852 19.7061977707681 2.402068298117497 1 0 0
190 1 11.638270708923555 15.06006209410897 2.8128932899272745 0 -1 0
120 1 11.911500091901438 19.675817815317565 11.146674540854267 0 -1 0
163 1 12.176489952196842 19.667616887117592 7.228834346360516 0 -1 0
164 1 16.135722156057763 19.345701065135295 2.736320642778152 -1 -1 1
205 1 13.557399582475226 12.932073585788867 8.851607026452806 0 0 1
131 1 20.060050809787242 19.307886950901835 6.843334049269195 -1 0 1
161 1 14.064868482319543 16.8721441842097 9.541268711647911 0 0 1
112 1 15.743307176836458 19.73166474766714 6.844370592501726 0 0 0
221 1 14.213543344928349 13.236621752523973 4.445301927431199 0 0 0
18 1 15.197147787863296 15.310698477308387 6.878563655125669 0 0 0
222 1 17.943798106977162 13.158665697929989 4.929266060276669 -1 0 0
103 1 17.415338306273682 12.887347593317084 9.48956133102803 0 0 0
5 1 13.445985978262287 17.235325121106655 4.296702483528126 0 0 0
156 1 20.272167479311452 14.985994266056025 6.943829180326953 -1 0 1
228 1 17.97494992601426 17.255605027904203 4.78544914432697 0 0 1
8 1 19.905361390432553 19.994840111572515 2.527369756527583 0 0 0
71 1 19.86385188861824 14.962191202420936 10.582676746910922 -1 0 0
74 1 18.16644222273987 17.34169088886112 8.864314554304373 0 0 0
95 1 19.834916172855035 19.70829067417646 10.953883755905935 0 -1 0
123 1 20.341819591207994 14.895864026928441 2.9176323240490647 0 0 1
22 1 15.86963338438535 14.705484645447683 2.1620594912243503 0 0 1
189 1 16.00983112752901 19.67786083393449 10.697552687192523 0 0 0
104 1 15.875023974289673 14.831748607908935 11.558098359024386 0 0 0
86 1 18.25115409401497 17.152457368784614 0.539159126766729 -1 0 0
49 1 13.563670457173323 13.203321250031934 0.5621622851465773 0 -1 0
82 1 9.542046264155669 0.5519490808122107 21.29212585989649 0 0 0
233 1 9.25819200015451 4.4637297920616925 21.464887413656655 0 2 0
236 1 5.478012365797607 4.624970199252109 21.37907268196173 0 0 -1
126 1 1.2109344396431165 5.118002034627416 21.371128597615098 0 0 0
177 1 7.534366726727186 6.659109849597205 19.55433734928315 0 0 0
241 1 5.368681176211461 4.459991057255439 13.340050675128156 0 1 0
81 1 9.481901262682713 4.376489261932569 12.932703158186463 0 1 0
144 1 3.1296733719916814 2.6259705146823906 15.268938961672552 1 0 0
43 1 3.234349852197518 7.0022808113668535 15.406815661824341 0 0 0
179 1 5.554657296444343 4.470091756804542 17.32531963686441 0 1 0
42 1 7.552369690689838 6.67616205912522 15.187568630687414 1 0 -1
242 1 9.543213176308944 8.528534112633919 17.93365238192416 0 0 0
39 1 5.516867966125942 8.656323802319148 17.52968198561269 0 1 0
208 1 9.637097841519566 4.147103154595084 17.468138182211256 -1 0 0
62 1 9.142774627466773 9.003819529559912 13.210594607606035 0 0 -1
170 1 6.805874064126514 1.9868311147679414 19.15671826505749 0 1 0
201 1 3.3791614981846094 6.78171146537517 19.36468940792619 1 1 0
57 1 7.372258340950525 2.6310559956786177 15.531539494896121 0 0 0
65 1 2.8347032423465457 2.251199585741919 19.335936630962824 -1 1 -1
142 1 5.680346068179312 8.71540262713046 13.370866589317233 0 1 1
3 1 7.295368268851847 10.821683886631448 15.59189308537068 0 0 -1
96 1 1.2628338568891482 5.157039378189549 12.94198766741811 0 0 -1
75 1 1.5570411806482933 9.330635059330792 17.585290363676027 1 0 -2
121 1 3.1953880938373276 10.828778623639048 14.879368412179101 0 0 0
108 1 1.2544725614887373 4.782867682466748 17.32308748550357 1 1 -1
230 1 3.406518578086331 10.790321992549309 20.036090538995925 0 -1 -1
85 1 11.556840756813413 11.012172857251485 19.872419283005687 0 0 -1
63 1 7.554615853943843 11.000745607328142 19.69360994152216 0 0 -1
27 1 1.416366482358013 8.565229423500362 13.009588912661593 0 0 0
24 1 5.040080691372168 0.4788109942602574 13.27442875840055 0 1 0
191 1 0.8307768511724253 0.7564424544168147 13.383010118434944 0 1 0
225 1 9.347227367805756 0.5181865213992616 13.131570771652367 0 1 0
198 1 11.188840843556083 10.904400411681577 15.662170259198177 0 0 0
38 1 10.758377287007963 6.550005823946217 15.024946015635761 0 0 0
238 1 11.613068421356369 6.550846772223531 20.168403558189226 0 1 0
122 1 9.283235433464373 0.4677404831426049 17.278819455110945 0 0 0
4 1 11.862630565128587 2.2417139299301345 15.284731588491798 0 0 1
102 1 11.697041321963026 2.6285156923632376 19.316638494686547 -1 1 -1
70 1 18.382977329804852 9.067127676391136 17.571695758364687 -1 1 -1
105 1 13.839040317234867 9.694056503331636 17.654931339545755 0 0 0
199 1 20.025721778427553 2.8072874233931797 18.907950572059743 -2 0 0
229 1 15.811092071045211 11.214078725658695 20.169789093277984 -1 0 0
134 1 13.191934232634228 9.093837627796573 13.620199562957879 0 0 0
7 1 13.339571647615717 4.732552859166306 13.060582645993764 1 1 0
245 1 15.873040084307185 7.21221766643254 19.231714758982587 -1 0 -1
224 1 20.470783628869036 6.920512440856603 15.565275586141196 0 0 0
117 1 19.821226631846105 2.9024069247984126 15.18751826248273 -1 0 -1
119 1 15.675725973791618 7.4129578939924405 15.749696770568702 -1 -1 0
194 1 18.312960890843943 9.451906060595382 13.318947353486248 0 0 1
220 1 17.693459664224232 4.877369467872843 13.13649071271811 0 0 0
151 1 15.615316111448116 2.6353431561680876 15.112475863308106 0 1 0
247 1 13.368384729444161 5.539050151946902 17.62128807503284 -1 0 0
160 1 17.644264315783293 4.874172749593509 17.493301771931943 0 1 0
185 1 20.297075608131337 7.165280803406932 19.56803144910005 0 -1 -1
10 1 15.818367203585307 2.417793115423229 19.350505294615733 -1 1 0
195 1 16.42685913126595 11.237522492307349 15.664513424144054 1 1 1
55 1 20.616701052879066 10.766963783196717 15.606384865630572 0 0 -1
150 1 20.21637531678 10.908221396879453 19.86744196122693 0 -1 0
136 1 17.75351998874857 0.5619175607236835 13.0292615816507 0 1 0
84 1 1.1786758952384226 21.10814582775275 21.455984265303783 0 0 -1
226 1 5.159373953033979 20.777158823430852 16.877999642461987 0 0 0
214 1 7.409410156304073 15.04349814636414 19.686003865914195 0 0 0
147 1 0.9749767142419817 21.166496633243863 17.677156913989162 1 0 0
107 1 5.044219375088491 16.996265050354296 17.83831618591388 0 0 -1
197 1 9.20148549510512 12.773337515905766 12.678058488986549 0 0 0
162 1 9.001111026719773 13.226700106488261 17.534018212778044 -1 0 -1
244 1 4.888214453843776 12.68640651194563 17.89516722739104 0 0 0
94 1 7.547374230109793 19.74710140129743 18.942006398069697 1 0 -1
16 1 2.6447735892630835 19.38435170415042 15.176295124866346 1 -1 -1
109 1 3.584922120041065 19.228700680275644 19.88314096821845 1 0 -1
77 1 2.870948749752481 14.892080218559867 14.892680141850896 1 0 -1
182 1 5.189587346509941 17.587358351919335 13.332446313686834 1 0 1
211 1 5.617086003498743 13.116436045369 12.861062999734004 0 1 0
216 1 7.128452392959514 15.592428207636711 15.295170712090908 0 0 0
14 1 3.5536931057059475 14.811039597610321 19.909971475721985 1 0 -1
130 1 7.431475474527476 19.451519964775844 14.969531188204392 0 -1 0
2 1 9.554816585565403 17.153812838258652 13.438599156440594 0 -1 0
173 1 1.3942388810469513 13.144842681903107 17.40776128565204 0 -1 1
113 1 9.17678783951506 17.4211875453177 17.422391527704562 0 0 -1
192 1 1.7153690305518121 16.680642598334817 17.33375753125282 1 0 0
88 1 0.8545611863505757 17.511189585213188 12.514207979384633 1 0 0
114 1 1.176705030529266 12.677593882655845 12.538543089370739 1 0 0
250 1 11.280740852423857 19.007090532113697 19.369702064358048 -1 -1 1
183 1 11.592771571046253 15.064408546668869 19.770937422172356 1 0 0
25 1 11.24710352171745 19.180021558635854 15.289752947652332 1 -1 -1
28 1 10.946775584857232 14.838482206625217 15.47872948561317 0 0 0
50 1 14.121126778733954 21.11567681349047 21.285025042924726 0 -2 0
174 1 13.478541170685611 16.932071377244036 21.4858065474153 1 0 -1
127 1 18.277169338008353 21.57354527175892 20.90734322372989 0 -1 0
246 1 13.945130842220447 21.479438862628733 13.05140205823071 0 0 0
219 1 18.241693713541448 13.383790533376512 21.21641077233105 0 0 0
9 1 17.92253848223088 21.43906069441493 17.078105739380813 0 0 -1
48 1 13.58774360236206 21.20553813931516 17.511330612262487 0 0 -1
148 1 13.339345828934539 13.527278926042966 13.339999388640411 0 0 0
56 1 15.83946047009909 19.443397800105124 15.608025052779277 0 -1 0
12 1 16.011565155431853 19.33455691456401 19.536270577583 0 0 0
33 1 20.18514194725155 19.45181271077572 14.88009102598985 0 0 0
206 1 19.706099763932162 19.376174432001967 19.135679406559923 -1 0 -1
101 1 20.735481314297036 15.213458453741007 19.128359066518883 0 0 -1
169 1 20.65939932278567 15.30191350933274 15.034108643317353 -1 1 0
137 1 18.57860465435498 17.423397560906366 17.177625652837946 0 -1 0
232 1 18.62107956510477 12.811856404634913 13.315270876396188 0 0 1
17 1 13.534730638256221 17.400053054822315 13.29498843605141 0 0 0
196 1 16.39390666450098 14.850790639861398 14.959429051726493 0 0 0
210 1 13.8015333693149 16.74440729228857 17.58022150226562 0 0 0
129 1 13.379288706669916 13.088985956415819 17.438561479801667 0 0 0
125 1 18.373089978860868 12.908804351135771 17.76649213363167 0 0 0
202 1 16.123170633078477 15.343292269752455 19.45878874418911 0 -1 0
23 1 18.3554173664335 17.198883532478117 13.119867377414334 0 -1 0

Velocities

146 -4.239918645601916 -0.432798776433023 -2.737393830281739
34 -2.643237238913314 -0.9809261351517518 1.0494631138116417
20 -1.952186190241835 -4.358713383634502 -0.0536493730447518
172 -0.1739835752501049 -5.001384139464694 -2.318593367537694
19 -3.905898748447441 -2.472960855340565 -1.7044058257184012
128 4.91578701726113 -5.477044646615917 -2.024623658859362
110 2.925013077990901 -1.798609978195425 2.5203197290822197
54 -0.353096476972089 -3.7582794357836846 1.8017663389504928
176 -2.4979383348586004 -1.1793448264576685 -0.2648130796862269
11 -2.385454030865027 -4.188482308755963 3.533999102777806
47 -1.7992821158188896 3.389685979714554 5.924551224188778
217 -2.5231661697171135 -2.3550619568359887 2.0064783544624474
30 -6.257990875584881 2.543271309021258 2.0980549578876877
234 2.5724306672753516 -1.1596121499628433 -0.3431387516925487
166 2.1487375440893506 4.272650645225385 3.6841507307613353
67 -0.26017586054666836 -0.9882303935628225 6.537667898192105
158 2.886325980962715 -2.284379966770321 -4.125109803810528
100 1.206452101131846 -3.4881070628083855 5.199932229195722
80 4.893137419198478 -2.14067607886819 -4.273558172395542
145 1.7194691619858087 2.390074339197175 -2.0525324116613954
181 -2.0971288159161983 -2.2192308563869982 5.1001821908830784
31 5.345424844460681 3.5023176067074853 -2.0365066220799513
41 -4.234627542226009 1.0619143821857084 -0.8688866036783794
90 4.2472085235118 1.9250231397608253 0.5893432419084988
78 -3.452062423749344 -6.6677508218260915 1.7455312507710488
64 -2.516386526405782 2.39943325584621 0.410866899188075
218 0.8407452155739912 -5.498012704167296 -5.616262693490563
203 2.259109359499117 0.6404448413252664 -1.4339155633744256
159 -2.1719386048536293 -0.3537345853216018 -6.1230915343694186
13 -2.692040863556938 3.724733578889869 1.0747790616111483
141 2.2165665355298674 -2.7443892495811695 -1.3656677388679768
91 -4.910162312844993 -3.1125111268525503 -5.7791866420613545
138 -7.710500190883524 -1.7326845033248612 1.2615370093284617
72 9.090300635154735 -1.654734420100691 -0.2805601740018622
152 0.6140143575118653 1.6385813017305821 2.805114242461876
118 3.0742386149041043 5.327784939975752 -0.5152691408239317
106 2.1689766444915457 0.6625134266663607 -3.447548701414279
124 -0.7789355718807343 5.526863277721538 0.7483459176221139
178 5.955521861816771 2.180566386905415 6.157757515639574
6 1.993291574055416 -3.5711622574774644 0.5724167147867775
66 0.16954162811912396 4.053458308601226 -6.322886946121409
111 -5.729379263505226 -4.69444352264809 6.461848083407268
153 -3.556687418421795 -1.2026011564913286 1.859429707426277
204 7.241015783902142 -2.4178925791978885 -0.9252488912732908
207 -0.08930021286044536 1.1774792567164767 2.01555564497104
200 0.5173283709771017 3.263017197297162 -1.2637789719769392
239 5.498425837002131 -2.8962953743549837 -0.9606612223731985
97 -6.498625778611525 3.331557276305304 -2.2210938182733106
168 -0.06563365128420377 -0.17615130277042682 -0.1299913983106863
52 -3.897939931674324 1.361210561940883 1.4965519806531895
135 7.93287333238473 5.081082204642263 2.526928319150487
193 -1.1081227306980552 -6.062595828273287 -5.505534152210832
184 4.61263934855793 -0.8298370093796995 0.5753597562901563
139 -0.8634903749790752 -1.0901347715531187 -2.713881551398286
35 -3.4492551989213487 0.2981044461328502 2.7878309989168613
69 3.1032191689022586 -6.010291023854172 -1.629303148849868
140 -9.786366044803689 -0.12445003537642088 -0.04006322536786995
154 -2.6035685708300793 -2.4235621520074964 -4.7368476505706925
93 1.4902239719190407 2.3212614060050534 -1.763878818080318
171 1.6546445216599694 1.019910279104982 6.05826324184733
188 1.6238502383956304 -2.2451608010086495 5.081212179199738
37 2.2585091869280034 4.957195226987603 -2.1965180408975757
240 -2.503013417687565 3.289706454593756 2.8607456076400175
231 -3.5036503666887224 1.7592266963252354 2.572583190716188
212 -1.8700410730648434 -1.9250233559394105 2.4867685885453974
40 2.656197078287042 -2.165025344547917 1.4959818147917017
44 -2.189660005217053 -2.059512884048779 1.303841487537692
83 -4.874467270914508 -7.830146165859431 1.0035704493581745
186 -2.602440478607699 5.094777013913557 1.514438073444505
99 -0.8166965072418931 -3.804645879987763 2.33400640906359
187 3.0201274492826657 6.973486670117697 -0.3509925480882908
51 -1.0641861910716754 4.1754746773896265 -3.829666481212767
1 4.842945219135623 -1.4548398180643696 -5.987073547835767
223 3.839355087084147 -7.649278131441631 2.041099667301235
248 8.220456575106558 -5.6225301162205055 2.9097349781568598
155 -0.445031815085281 5.890565010034265 -2.6612053574966223
73 -0.9106662681799446 -4.3091886709112925 2.5738401478898276
243 0.037612927904441734 4.086956566808894 -2.1982896416790316
115 2.560125570576797 -2.577706171388127 7.346436719903837
116 -6.856701103474854 2.416068927162296 -2.0712019382704328
215 -0.8906736736993613 3.163056911197088 4.601777411242883
36 0.6967701276895298 -5.9781116186421395 -4.301667114109172
132 1.7420366024995138 1.7627224306043416 0.005790669506301166
157 -0.018185625307888892 -4.371993784834965 -1.4599494508266477
92 4.438668507800819 0.7438954775761113 1.6334224372906943
143 -4.631626857123403 1.4062411447773333 -6.238384304259034
213 0.8433151644724999 -5.022823669271651 8.435896576415933
180 -6.2880369084084435 2.320484171903016 -9.270087335041463
45 -3.032098421056304 1.0582491137999908 3.415719219475193
237 1.396270888275604 -5.12690489667555 2.025448670146181
133 1.654747116574165 1.8103832554779746 -4.187332167017899
167 -5.171942798633612 -2.570703961266563 -2.0709972356191604
32 -3.426265347776472 0.21355255370350051 -8.301680766952048
165 1.164423332117942 4.657488736890515 0.1686047675622238
61 -6.61725534350143 1.58384474104092 5.534631532177448
98 0.9298828400454653 -3.3580627240732244 3.626274277455939
26 7.316164478511806 -2.6357797871997772 1.032719331496659
60 1.1913251491407584 -3.3289386390858193 6.420302847594989
249 -1.1360872719092105 1.739201672525396 -1.3757420491064694
29 3.1383943402053736 1.2117077294089769 1.6689330697746103
89 -6.011111340632725 6.459171271477405 1.7487118977049356
53 -0.7803581175037736 -4.206154059639984 -7.671941881526421
149 7.844260117655892 -7.935324461852866 4.912703636825466
87 -3.532639576377267 1.3724843211078377 -1.7898352471288046
15 0.8574997504881076 0.3900177802498982 -4.57049016405718
58 -2.285290935773691 1.597981174761016 -1.0771524060845155
68 0.05851075625807112 0.4852274207277788 0.7434492944308503
235 2.1598142919997287 1.9151847947281198 2.294490965020479
76 -0.511235382449768 0.2527953921703543 -5.5871212332432725
46 -1.7760820400473438 -0.8993488528277553 -2.661488841360413
227 5.26271790663265 -3.5728346254710805 -3.8147410208592265
175 -2.4817055089613014 2.455157847103842 -0.9818485262180427
21 3.555728786521667 2.0686526111991896 1.7445399816372353
59 3.4854270255672373 3.117447979909605 0.1623556108077523
209 5.759606869868866 5.497348928186685 3.4138810749786916
79 -3.087442001227506 3.064482866260597 4.277779008380838
190 -1.5158836390150914 6.705671467579935 3.449002780683135
120 -0.22078711504146153 1.1262675220655145 2.9486412793282644
163 -0.4952953497185513 -3.766529309115938 2.6921872198639534
164 -1.8279852040891957 -1.9779559135033415 6.371188940041233
205 -5.365247455816809 -4.895454609062288 -4.40609320914702
131 0.15518959187986 3.754130081901472 1.2564072671098516
161 -1.1741600209168994 -0.21247206943266458 -4.541790560185376
112 -6.408635730763786 2.8654364220065993 4.039821907539015
221 0.9607684122496043 -6.094389855044536 -2.6684612541831076
18 5.084580822859324 9.653603877171399 -6.972626848499592
222 0.2634451400070077 -4.872533612226721 -2.1877593858320927
103 -5.973137259447351 0.17931712680674317 -2.2404766214852336
5 -1.36824869915984 -3.24123180657449 2.913318824234346
156 -2.435039697076783 0.5865201879884812 1.2887438270029374
228 -4.973310322180555 2.255213062326982 6.882086359501127
8 -5.087066940794852 0.817186229474392 -3.373197172585442
71 2.814547418524017 0.9723536474984311 0.7120036286782588
74 -0.7735535434797848 -0.6862792694524595 1.9806380419943672
95 -0.1491666086141866 -3.80376026608967 -1.9185014339407769
123 6.8392549410506085 -5.689067166606355 -1.4105488212559267
22 2.9756943643593843 4.85753799680262 0.9143969558215088
189 -0.6681652854697456 -1.2797743520050984 -5.328645409946279
104 4.876633728217367 -2.344216374535421 -2.1441337564225327
86 5.434366898596059 1.2408167299838586 2.825018591196218
49 2.1659654098772525 -0.4686441305620199 4.619873057092689
82 -0.3904700362429838 5.8119396486407995 -0.3403944319875468
233 2.8650773917612753 -3.815176522866601 2.2458341944204476
236 -1.2423499016589017 5.043812873112084 0.11972642724857233
126 -0.9130531832195846 -3.0604473005832453 0.24490360092168795
177 1.0660909976636277 2.65431644776787 3.1093775133376713
241 -2.360783277283 4.622864939548571 0.41701094800650984
81 -1.217125986891193 3.3581845405180464 1.9025999034768781
144 5.3373102381626 -0.4640013087029598 7.431739886391531
43 -8.2276010721861 -5.362619205305906 -3.8801951480209826
179 -1.1242022791171051 -3.3119806106802625 0.8765331826355941
42 -6.885357989390598 -0.8397483636363638 -1.4415914354496762
242 2.1507919070199835 7.434364200685465 2.159703895845947
39 3.5348008613307247 8.32393603059757 -2.0919095834797576
208 -1.5398988576217045 -0.7159384922599843 -2.7436542573253235
62 4.714746644886415 -3.2653503536286945 -1.2732309317264134
170 3.810234230298733 3.1354119411456636 -6.784591034333028
201 4.983457057073905 -4.0076348702746545 -0.14188882920341422
57 -0.03471648801679239 0.9860042579535193 4.629694473744641
65 1.688058481093877 -3.7160320189366014 0.18652866297505433
142 -2.697315855612232 -2.694261789336693 3.1306109140015104
3 -1.9384779089929178 -0.7722259526456832 -1.3086678044463809
96 3.032421189588763 -1.3923269130522837 1.2971103141146292
75 -5.884933437927673 -1.0177574225603079 -2.1726524980186666
121 2.851760891454674 -2.2055049002946125 2.1092277364753977
108 1.7425339241206235 3.5052040344740893 -2.6168567732726653
230 -0.3958629183322747 3.9123564759527465 -7.0224983143618696
85 3.1737593107933373 4.04079769149402 1.9289593135894119
63 6.778717367600062 -5.268116458437437 -3.7173176982099854
27 -1.994888469260433 0.00392717058541589 10.81323904780254
24 -2.76421849963518 6.655581518395774 -2.1521311411528687
191 4.331021168214319 -3.442697599872856 -11.34362300921687
225 -1.8463424954756762 4.741104193598271 -0.5398594594984433
198 -2.178352862683195 5.161385696238014 1.013907699288059
38 -2.4984740879939524 3.077128597773356 3.8107554358410165
238 -0.470636526782898 1.8380676686633062 3.991913931601425
122 0.5892292281595395 2.0878893370119154 -2.5087157858229485
4 -1.6673049217359965 -5.9404946094538955 -4.370255877481168
102 -0.9668421719819593 1.2569690257386317 0.11414040941742352
70 -0.017567211727865517 -2.222776725624522 3.0237446840385513
105 4.647313527807429 -3.480661221750761 2.200703692253516
199 1.4250084186119774 1.081376806372766 -0.3162208001028466
229 2.5601131671828044 -3.6641064776055177 3.6606431826086205
134 -0.467369998720717 -3.2995797016953525 1.7427778297794045
7 0.030860091566073722 -3.8821048440348624 -1.7096136431384121
245 2.1797243860449016 2.2605764624818168 2.2486241253569474
224 -3.8754630968838204 3.493352535117908 0.04304294356692703
117 2.861318084700131 -3.423061353212984 9.064668557631355
119 0.8989882788392882 -9.183306647925441 -3.5425247725244846
194 -5.6204340909410835 4.46614487454805 0.06021206890189093
220 -1.2578074971863569 2.1439535700339425 -4.88516694316974
151 6.817816234380366 3.0657648942458873 -2.0097945927980367
247 -1.2023742530546744 2.6503603094270147 -3.7277981264188136
160 -3.7826381253233077 -0.34979638937111374 -1.5373261727514669
185 -2.8209100597877357 0.27158191932730846 3.326131561535548
10 -0.2872466225723079 -0.5714459091577895 -2.6394106711763134
195 4.070281089628381 0.0736181376990519 5.007929303854867
55 -1.7490995904809887 -2.3458874629885393 1.1729887608324416
150 3.80229164047015 4.461821580883618 0.7066055463843689
136 -2.050028366740264 1.1462908299931707 2.921944461593527
84 1.347012679778118 11.265291471693141 -4.051938468082181
226 3.6070770553873497 2.243028450560116 1.5116115912720878
214 -2.5089538272833187 -0.21118378122091985 -8.10600830049796
147 -2.4546154036128507 1.4576822882088176 -2.13441577886823
107 -0.0955083097423667 -3.0076998877222367 7.407623639204912
197 3.2896027437876905 0.3166359283073226 3.9339139557164655
162 2.3692492494045023 2.0277852969039625 -1.2963838885551027
244 1.7998157116303837 1.681015864777846 -0.5749818592080637
94 -3.2131347694490993 -6.869814776641196 -2.9210004984047444
16 2.260256752253093 -1.2102483847844467 1.375262513113843
109 1.7977553122998036 2.770148949850509 1.315667741606349